+ 0 /NodeList/2/DeviceList/0/$ns3::PointToPointNetDevice/TxQueue/Enqueue ns3::PppHeader (Point-to-Point Protocol: IP (0x0021)) ns3::Ipv4Header (tos 0x0 DSCP Default ECN Not-ECT ttl 64 id 0 protocol 6 offset (bytes) 0 flags [none] length: 56 10.1.1.1 > 10.2.1.1) ns3::TcpHeader (49153 > 5000 [SYN] Seq=0 Ack=0 Win=65535 ns3::TcpOptionTS(0;0) ns3::TcpOptionWinScale(2) ns3::TcpOptionSackPermitted([sack_perm]) ns3::TcpOptionEnd(EOL))
- 0 /NodeList/2/DeviceList/0/$ns3::PointToPointNetDevice/TxQueue/Dequeue ns3::PppHeader (Point-to-Point Protocol: IP (0x0021)) ns3::Ipv4Header (tos 0x0 DSCP Default ECN Not-ECT ttl 64 id 0 protocol 6 offset (bytes) 0 flags [none] length: 56 10.1.1.1 > 10.2.1.1) ns3::TcpHeader (49153 > 5000 [SYN] Seq=0 Ack=0 Win=65535 ns3::TcpOptionTS(0;0) ns3::TcpOptionWinScale(2) ns3::TcpOptionSackPermitted([sack_perm]) ns3::TcpOptionEnd(EOL))
r 0.0100093 /NodeList/0/DeviceList/1/$ns3::PointToPointNetDevice/MacRx ns3::PppHeader (Point-to-Point Protocol: IP (0x0021)) ns3::Ipv4Header (tos 0x0 DSCP Default ECN Not-ECT ttl 64 id 0 protocol 6 offset (bytes) 0 flags [none] length: 56 10.1.1.1 > 10.2.1.1) ns3::TcpHeader (49153 > 5000 [SYN] Seq=0 Ack=0 Win=65535 ns3::TcpOptionTS(0;0) ns3::TcpOptionWinScale(2) ns3::TcpOptionSackPermitted([sack_perm]) ns3::TcpOptionEnd(EOL))
+ 0.0100093 /NodeList/0/DeviceList/0/$ns3::PointToPointNetDevice/TxQueue/Enqueue ns3::PppHeader (Point-to-Point Protocol: IP (0x0021)) ns3::Ipv4Header (tos 0x0 DSCP Default ECN Not-ECT ttl 63 id 0 protocol 6 offset (bytes) 0 flags [none] length: 56 10.1.1.1 > 10.2.1.1) ns3::TcpHeader (49153 > 5000 [SYN] Seq=0 Ack=0 Win=65535 ns3::TcpOptionTS(0;0) ns3::TcpOptionWinScale(2) ns3::TcpOptionSackPermitted([sack_perm]) ns3::TcpOptionEnd(EOL))
- 0.0100093 /NodeList/0/DeviceList/0/$ns3::PointToPointNetDevice/TxQueue/Dequeue ns3::PppHeader (Point-to-Point Protocol: IP (0x0021)) ns3::Ipv4Header (tos 0x0 DSCP Default ECN Not-ECT ttl 63 id 0 protocol 6 offset (bytes) 0 flags [none] length: 56 10.1.1.1 > 10.2.1.1) ns3::TcpHeader (49153 > 5000 [SYN] Seq=0 Ack=0 Win=65535 ns3::TcpOptionTS(0;0) ns3::TcpOptionWinScale(2) ns3::TcpOptionSackPermitted([sack_perm]) ns3::TcpOptionEnd(EOL))
r 0.0200186 /NodeList/1/DeviceList/0/$ns3::PointToPointNetDevice/MacRx ns3::PppHeader (Point-to-Point Protocol: IP (0x0021)) ns3::Ipv4Header (tos 0x0 DSCP Default ECN Not-ECT ttl 63 id 0 protocol 6 offset (bytes) 0 flags [none] length: 56 10.1.1.1 > 10.2.1.1) ns3::TcpHeader (49153 > 5000 [SYN] Seq=0 Ack=0 Win=65535 ns3::TcpOptionTS(0;0) ns3::TcpOptionWinScale(2) ns3::TcpOptionSackPermitted([sack_perm]) ns3::TcpOptionEnd(EOL))
+ 0.0200186 /NodeList/1/DeviceList/1/$ns3::PointToPointNetDevice/TxQueue/Enqueue ns3::PppHeader (Point-to-Point Protocol: IP (0x0021)) ns3::Ipv4Header (tos 0x0 DSCP Default ECN Not-ECT ttl 62 id 0 protocol 6 offset (bytes) 0 flags [none] length: 56 10.1.1.1 > 10.2.1.1) ns3::TcpHeader (49153 > 5000 [SYN] Seq=0 Ack=0 Win=65535 ns3::TcpOptionTS(0;0) ns3::TcpOptionWinScale(2) ns3::TcpOptionSackPermitted([sack_perm]) ns3::TcpOptionEnd(EOL))
- 0.0200186 /NodeList/1/DeviceList/1/$ns3::PointToPointNetDevice/TxQueue/Dequeue ns3::PppHeader (Point-to-Point Protocol: IP (0x0021)) ns3::Ipv4Header (tos 0x0 DSCP Default ECN Not-ECT ttl 62 id 0 protocol 6 offset (bytes) 0 flags [none] length: 56 10.1.1.1 > 10.2.1.1) ns3::TcpHeader (49153 > 5000 [SYN] Seq=0 Ack=0 Win=65535 ns3::TcpOptionTS(0;0) ns3::TcpOptionWinScale(2) ns3::TcpOptionSackPermitted([sack_perm]) ns3::TcpOptionEnd(EOL))
r 0.0300278 /NodeList/4/DeviceList/0/$ns3::PointToPointNetDevice/MacRx ns3::PppHeader (Point-to-Point Protocol: IP (0x0021)) ns3::Ipv4Header (tos 0x0 DSCP Default ECN Not-ECT ttl 62 id 0 protocol 6 offset (bytes) 0 flags [none] length: 56 10.1.1.1 > 10.2.1.1) ns3::TcpHeader (49153 > 5000 [SYN] Seq=0 Ack=0 Win=65535 ns3::TcpOptionTS(0;0) ns3::TcpOptionWinScale(2) ns3::TcpOptionSackPermitted([sack_perm]) ns3::TcpOptionEnd(EOL))
+ 0.0300278 /NodeList/4/DeviceList/0/$ns3::PointToPointNetDevice/TxQueue/Enqueue ns3::PppHeader (Point-to-Point Protocol: IP (0x0021)) ns3::Ipv4Header (tos 0x0 DSCP Default ECN Not-ECT ttl 64 id 0 protocol 6 offset (bytes) 0 flags [none] length: 56 10.2.1.1 > 10.1.1.1) ns3::TcpHeader (5000 > 49153 [SYN|ACK] Seq=0 Ack=1 Win=65535 ns3::TcpOptionTS(30;0) ns3::TcpOptionWinScale(2) ns3::TcpOptionSackPermitted([sack_perm]) ns3::TcpOptionEnd(EOL))
- 0.0300278 /NodeList/4/DeviceList/0/$ns3::PointToPointNetDevice/TxQueue/Dequeue ns3::PppHeader (Point-to-Point Protocol: IP (0x0021)) ns3::Ipv4Header (tos 0x0 DSCP Default ECN Not-ECT ttl 64 id 0 protocol 6 offset (bytes) 0 flags [none] length: 56 10.2.1.1 > 10.1.1.1) ns3::TcpHeader (5000 > 49153 [SYN|ACK] Seq=0 Ack=1 Win=65535 ns3::TcpOptionTS(30;0) ns3::TcpOptionWinScale(2) ns3::TcpOptionSackPermitted([sack_perm]) ns3::TcpOptionEnd(EOL))
r 0.0400371 /NodeList/1/DeviceList/1/$ns3::PointToPointNetDevice/MacRx ns3::PppHeader (Point-to-Point Protocol: IP (0x0021)) ns3::Ipv4Header (tos 0x0 DSCP Default ECN Not-ECT ttl 64 id 0 protocol 6 offset (bytes) 0 flags [none] length: 56 10.2.1.1 > 10.1.1.1) ns3::TcpHeader (5000 > 49153 [SYN|ACK] Seq=0 Ack=1 Win=65535 ns3::TcpOptionTS(30;0) ns3::TcpOptionWinScale(2) ns3::TcpOptionSackPermitted([sack_perm]) ns3::TcpOptionEnd(EOL))
+ 0.0400371 /NodeList/1/DeviceList/0/$ns3::PointToPointNetDevice/TxQueue/Enqueue ns3::PppHeader (Point-to-Point Protocol: IP (0x0021)) ns3::Ipv4Header (tos 0x0 DSCP Default ECN Not-ECT ttl 63 id 0 protocol 6 offset (bytes) 0 flags [none] length: 56 10.2.1.1 > 10.1.1.1) ns3::TcpHeader (5000 > 49153 [SYN|ACK] Seq=0 Ack=1 Win=65535 ns3::TcpOptionTS(30;0) ns3::TcpOptionWinScale(2) ns3::TcpOptionSackPermitted([sack_perm]) ns3::TcpOptionEnd(EOL))
- 0.0400371 /NodeList/1/DeviceList/0/$ns3::PointToPointNetDevice/TxQueue/Dequeue ns3::PppHeader (Point-to-Point Protocol: IP (0x0021)) ns3::Ipv4Header (tos 0x0 DSCP Default ECN Not-ECT ttl 63 id 0 protocol 6 offset (bytes) 0 flags [none] length: 56 10.2.1.1 > 10.1.1.1) ns3::TcpHeader (5000 > 49153 [SYN|ACK] Seq=0 Ack=1 Win=65535 ns3::TcpOptionTS(30;0) ns3::TcpOptionWinScale(2) ns3::TcpOptionSackPermitted([sack_perm]) ns3::TcpOptionEnd(EOL))
d 0.0500464 /NodeList/0/DeviceList/0/$ns3::PointToPointNetDevice/PhyRxDrop ns3::PppHeader (Point-to-Point Protocol: IP (0x0021)) ns3::Ipv4Header (tos 0x0 DSCP Default ECN Not-ECT ttl 63 id 0 protocol 6 offset (bytes) 0 flags [none] length: 56 10.2.1.1 > 10.1.1.1) ns3::TcpHeader (5000 > 49153 [SYN|ACK] Seq=0 Ack=1 Win=65535 ns3::TcpOptionTS(30;0) ns3::TcpOptionWinScale(2) ns3::TcpOptionSackPermitted([sack_perm]) ns3::TcpOptionEnd(EOL))
+ 3 /NodeList/2/DeviceList/0/$ns3::PointToPointNetDevice/TxQueue/Enqueue ns3::PppHeader (Point-to-Point Protocol: IP (0x0021)) ns3::Ipv4Header (tos 0x0 DSCP Default ECN Not-ECT ttl 64 id 1 protocol 6 offset (bytes) 0 flags [none] length: 56 10.1.1.1 > 10.2.1.1) ns3::TcpHeader (49153 > 5000 [SYN] Seq=0 Ack=0 Win=65535 ns3::TcpOptionTS(3000;0) ns3::TcpOptionWinScale(2) ns3::TcpOptionSackPermitted([sack_perm]) ns3::TcpOptionEnd(EOL))
- 3 /NodeList/2/DeviceList/0/$ns3::PointToPointNetDevice/TxQueue/Dequeue ns3::PppHeader (Point-to-Point Protocol: IP (0x0021)) ns3::Ipv4Header (tos 0x0 DSCP Default ECN Not-ECT ttl 64 id 1 protocol 6 offset (bytes) 0 flags [none] length: 56 10.1.1.1 > 10.2.1.1) ns3::TcpHeader (49153 > 5000 [SYN] Seq=0 Ack=0 Win=65535 ns3::TcpOptionTS(3000;0) ns3::TcpOptionWinScale(2) ns3::TcpOptionSackPermitted([sack_perm]) ns3::TcpOptionEnd(EOL))
r 3.01001 /NodeList/0/DeviceList/1/$ns3::PointToPointNetDevice/MacRx ns3::PppHeader (Point-to-Point Protocol: IP (0x0021)) ns3::Ipv4Header (tos 0x0 DSCP Default ECN Not-ECT ttl 64 id 1 protocol 6 offset (bytes) 0 flags [none] length: 56 10.1.1.1 > 10.2.1.1) ns3::TcpHeader (49153 > 5000 [SYN] Seq=0 Ack=0 Win=65535 ns3::TcpOptionTS(3000;0) ns3::TcpOptionWinScale(2) ns3::TcpOptionSackPermitted([sack_perm]) ns3::TcpOptionEnd(EOL))
+ 3.01001 /NodeList/0/DeviceList/0/$ns3::PointToPointNetDevice/TxQueue/Enqueue ns3::PppHeader (Point-to-Point Protocol: IP (0x0021)) ns3::Ipv4Header (tos 0x0 DSCP Default ECN Not-ECT ttl 63 id 1 protocol 6 offset (bytes) 0 flags [none] length: 56 10.1.1.1 > 10.2.1.1) ns3::TcpHeader (49153 > 5000 [SYN] Seq=0 Ack=0 Win=65535 ns3::TcpOptionTS(3000;0) ns3::TcpOptionWinScale(2) ns3::TcpOptionSackPermitted([sack_perm]) ns3::TcpOptionEnd(EOL))
- 3.01001 /NodeList/0/DeviceList/0/$ns3::PointToPointNetDevice/TxQueue/Dequeue ns3::PppHeader (Point-to-Point Protocol: IP (0x0021)) ns3::Ipv4Header (tos 0x0 DSCP Default ECN Not-ECT ttl 63 id 1 protocol 6 offset (bytes) 0 flags [none] length: 56 10.1.1.1 > 10.2.1.1) ns3::TcpHeader (49153 > 5000 [SYN] Seq=0 Ack=0 Win=65535 ns3::TcpOptionTS(3000;0) ns3::TcpOptionWinScale(2) ns3::TcpOptionSackPermitted([sack_perm]) ns3::TcpOptionEnd(EOL))
d 3.02002 /NodeList/1/DeviceList/0/$ns3::PointToPointNetDevice/PhyRxDrop ns3::PppHeader (Point-to-Point Protocol: IP (0x0021)) ns3::Ipv4Header (tos 0x0 DSCP Default ECN Not-ECT ttl 63 id 1 protocol 6 offset (bytes) 0 flags [none] length: 56 10.1.1.1 > 10.2.1.1) ns3::TcpHeader (49153 > 5000 [SYN] Seq=0 Ack=0 Win=65535 ns3::TcpOptionTS(3000;0) ns3::TcpOptionWinScale(2) ns3::TcpOptionSackPermitted([sack_perm]) ns3::TcpOptionEnd(EOL))
+ 3.03003 /NodeList/4/DeviceList/0/$ns3::PointToPointNetDevice/TxQueue/Enqueue ns3::PppHeader (Point-to-Point Protocol: IP (0x0021)) ns3::Ipv4Header (tos 0x0 DSCP Default ECN Not-ECT ttl 64 id 1 protocol 6 offset (bytes) 0 flags [none] length: 56 10.2.1.1 > 10.1.1.1) ns3::TcpHeader (5000 > 49153 [SYN|ACK] Seq=0 Ack=1 Win=65535 ns3::TcpOptionTS(3030;0) ns3::TcpOptionWinScale(2) ns3::TcpOptionSackPermitted([sack_perm]) ns3::TcpOptionEnd(EOL))
- 3.03003 /NodeList/4/DeviceList/0/$ns3::PointToPointNetDevice/TxQueue/Dequeue ns3::PppHeader (Point-to-Point Protocol: IP (0x0021)) ns3::Ipv4Header (tos 0x0 DSCP Default ECN Not-ECT ttl 64 id 1 protocol 6 offset (bytes) 0 flags [none] length: 56 10.2.1.1 > 10.1.1.1) ns3::TcpHeader (5000 > 49153 [SYN|ACK] Seq=0 Ack=1 Win=65535 ns3::TcpOptionTS(3030;0) ns3::TcpOptionWinScale(2) ns3::TcpOptionSackPermitted([sack_perm]) ns3::TcpOptionEnd(EOL))
r 3.04004 /NodeList/1/DeviceList/1/$ns3::PointToPointNetDevice/MacRx ns3::PppHeader (Point-to-Point Protocol: IP (0x0021)) ns3::Ipv4Header (tos 0x0 DSCP Default ECN Not-ECT ttl 64 id 1 protocol 6 offset (bytes) 0 flags [none] length: 56 10.2.1.1 > 10.1.1.1) ns3::TcpHeader (5000 > 49153 [SYN|ACK] Seq=0 Ack=1 Win=65535 ns3::TcpOptionTS(3030;0) ns3::TcpOptionWinScale(2) ns3::TcpOptionSackPermitted([sack_perm]) ns3::TcpOptionEnd(EOL))
+ 3.04004 /NodeList/1/DeviceList/0/$ns3::PointToPointNetDevice/TxQueue/Enqueue ns3::PppHeader (Point-to-Point Protocol: IP (0x0021)) ns3::Ipv4Header (tos 0x0 DSCP Default ECN Not-ECT ttl 63 id 1 protocol 6 offset (bytes) 0 flags [none] length: 56 10.2.1.1 > 10.1.1.1) ns3::TcpHeader (5000 > 49153 [SYN|ACK] Seq=0 Ack=1 Win=65535 ns3::TcpOptionTS(3030;0) ns3::TcpOptionWinScale(2) ns3::TcpOptionSackPermitted([sack_perm]) ns3::TcpOptionEnd(EOL))
- 3.04004 /NodeList/1/DeviceList/0/$ns3::PointToPointNetDevice/TxQueue/Dequeue ns3::PppHeader (Point-to-Point Protocol: IP (0x0021)) ns3::Ipv4Header (tos 0x0 DSCP Default ECN Not-ECT ttl 63 id 1 protocol 6 offset (bytes) 0 flags [none] length: 56 10.2.1.1 > 10.1.1.1) ns3::TcpHeader (5000 > 49153 [SYN|ACK] Seq=0 Ack=1 Win=65535 ns3::TcpOptionTS(3030;0) ns3::TcpOptionWinScale(2) ns3::TcpOptionSackPermitted([sack_perm]) ns3::TcpOptionEnd(EOL))
r 3.05005 /NodeList/0/DeviceList/0/$ns3::PointToPointNetDevice/MacRx ns3::PppHeader (Point-to-Point Protocol: IP (0x0021)) ns3::Ipv4Header (tos 0x0 DSCP Default ECN Not-ECT ttl 63 id 1 protocol 6 offset (bytes) 0 flags [none] length: 56 10.2.1.1 > 10.1.1.1) ns3::TcpHeader (5000 > 49153 [SYN|ACK] Seq=0 Ack=1 Win=65535 ns3::TcpOptionTS(3030;0) ns3::TcpOptionWinScale(2) ns3::TcpOptionSackPermitted([sack_perm]) ns3::TcpOptionEnd(EOL))
+ 3.05005 /NodeList/0/DeviceList/1/$ns3::PointToPointNetDevice/TxQueue/Enqueue ns3::PppHeader (Point-to-Point Protocol: IP (0x0021)) ns3::Ipv4Header (tos 0x0 DSCP Default ECN Not-ECT ttl 62 id 1 protocol 6 offset (bytes) 0 flags [none] length: 56 10.2.1.1 > 10.1.1.1) ns3::TcpHeader (5000 > 49153 [SYN|ACK] Seq=0 Ack=1 Win=65535 ns3::TcpOptionTS(3030;0) ns3::TcpOptionWinScale(2) ns3::TcpOptionSackPermitted([sack_perm]) ns3::TcpOptionEnd(EOL))
- 3.05005 /NodeList/0/DeviceList/1/$ns3::PointToPointNetDevice/TxQueue/Dequeue ns3::PppHeader (Point-to-Point Protocol: IP (0x0021)) ns3::Ipv4Header (tos 0x0 DSCP Default ECN Not-ECT ttl 62 id 1 protocol 6 offset (bytes) 0 flags [none] length: 56 10.2.1.1 > 10.1.1.1) ns3::TcpHeader (5000 > 49153 [SYN|ACK] Seq=0 Ack=1 Win=65535 ns3::TcpOptionTS(3030;0) ns3::TcpOptionWinScale(2) ns3::TcpOptionSackPermitted([sack_perm]) ns3::TcpOptionEnd(EOL))
r 3.06006 /NodeList/2/DeviceList/0/$ns3::PointToPointNetDevice/MacRx ns3::PppHeader (Point-to-Point Protocol: IP (0x0021)) ns3::Ipv4Header (tos 0x0 DSCP Default ECN Not-ECT ttl 62 id 1 protocol 6 offset (bytes) 0 flags [none] length: 56 10.2.1.1 > 10.1.1.1) ns3::TcpHeader (5000 > 49153 [SYN|ACK] Seq=0 Ack=1 Win=65535 ns3::TcpOptionTS(3030;0) ns3::TcpOptionWinScale(2) ns3::TcpOptionSackPermitted([sack_perm]) ns3::TcpOptionEnd(EOL))
+ 3.06006 /NodeList/2/DeviceList/0/$ns3::PointToPointNetDevice/TxQueue/Enqueue ns3::PppHeader (Point-to-Point Protocol: IP (0x0021)) ns3::Ipv4Header (tos 0x0 DSCP Default ECN Not-ECT ttl 64 id 2 protocol 6 offset (bytes) 0 flags [none] length: 52 10.1.1.1 > 10.2.1.1) ns3::TcpHeader (49153 > 5000 [ACK] Seq=1 Ack=1 Win=32768 ns3::TcpOptionTS(3060;3030) ns3::TcpOptionEnd(EOL))
- 3.06006 /NodeList/2/DeviceList/0/$ns3::PointToPointNetDevice/TxQueue/Dequeue ns3::PppHeader (Point-to-Point Protocol: IP (0x0021)) ns3::Ipv4Header (tos 0x0 DSCP Default ECN Not-ECT ttl 64 id 2 protocol 6 offset (bytes) 0 flags [none] length: 52 10.1.1.1 > 10.2.1.1) ns3::TcpHeader (49153 > 5000 [ACK] Seq=1 Ack=1 Win=32768 ns3::TcpOptionTS(3060;3030) ns3::TcpOptionEnd(EOL))
+ 3.06006 /NodeList/2/DeviceList/0/$ns3::PointToPointNetDevice/TxQueue/Enqueue ns3::PppHeader (Point-to-Point Protocol: IP (0x0021)) ns3::Ipv4Header (tos 0x0 DSCP Default ECN Not-ECT ttl 64 id 3 protocol 6 offset (bytes) 0 flags [none] length: 588 10.1.1.1 > 10.2.1.1) ns3::TcpHeader (49153 > 5000 [ACK] Seq=1 Ack=1 Win=32768 ns3::TcpOptionTS(3060;3030) ns3::TcpOptionEnd(EOL)) Payload Fragment [0:536]
+ 3.06006 /NodeList/2/DeviceList/0/$ns3::PointToPointNetDevice/TxQueue/Enqueue ns3::PppHeader (Point-to-Point Protocol: IP (0x0021)) ns3::Ipv4Header (tos 0x0 DSCP Default ECN Not-ECT ttl 64 id 4 protocol 6 offset (bytes) 0 flags [none] length: 588 10.1.1.1 > 10.2.1.1) ns3::TcpHeader (49153 > 5000 [ACK] Seq=537 Ack=1 Win=32768 ns3::TcpOptionTS(3060;3030) ns3::TcpOptionEnd(EOL)) Payload Fragment [536:1072]
+ 3.06006 /NodeList/2/DeviceList/0/$ns3::PointToPointNetDevice/TxQueue/Enqueue ns3::PppHeader (Point-to-Point Protocol: IP (0x0021)) ns3::Ipv4Header (tos 0x0 DSCP Default ECN Not-ECT ttl 64 id 5 protocol 6 offset (bytes) 0 flags [none] length: 588 10.1.1.1 > 10.2.1.1) ns3::TcpHeader (49153 > 5000 [ACK] Seq=1073 Ack=1 Win=32768 ns3::TcpOptionTS(3060;3030) ns3::TcpOptionEnd(EOL)) Payload Fragment [1072:1608]
+ 3.06006 /NodeList/2/DeviceList/0/$ns3::PointToPointNetDevice/TxQueue/Enqueue ns3::PppHeader (Point-to-Point Protocol: IP (0x0021)) ns3::Ipv4Header (tos 0x0 DSCP Default ECN Not-ECT ttl 64 id 6 protocol 6 offset (bytes) 0 flags [none] length: 588 10.1.1.1 > 10.2.1.1) ns3::TcpHeader (49153 > 5000 [ACK] Seq=1609 Ack=1 Win=32768 ns3::TcpOptionTS(3060;3030) ns3::TcpOptionEnd(EOL)) Payload Fragment [1608:2000] Payload Fragment [0:144]
+ 3.06006 /NodeList/2/DeviceList/0/$ns3::PointToPointNetDevice/TxQueue/Enqueue ns3::PppHeader (Point-to-Point Protocol: IP (0x0021)) ns3::Ipv4Header (tos 0x0 DSCP Default ECN Not-ECT ttl 64 id 7 protocol 6 offset (bytes) 0 flags [none] length: 588 10.1.1.1 > 10.2.1.1) ns3::TcpHeader (49153 > 5000 [ACK] Seq=2145 Ack=1 Win=32768 ns3::TcpOptionTS(3060;3030) ns3::TcpOptionEnd(EOL)) Payload Fragment [144:680]
+ 3.06006 /NodeList/2/DeviceList/0/$ns3::PointToPointNetDevice/TxQueue/Enqueue ns3::PppHeader (Point-to-Point Protocol: IP (0x0021)) ns3::Ipv4Header (tos 0x0 DSCP Default ECN Not-ECT ttl 64 id 8 protocol 6 offset (bytes) 0 flags [none] length: 588 10.1.1.1 > 10.2.1.1) ns3::TcpHeader (49153 > 5000 [ACK] Seq=2681 Ack=1 Win=32768 ns3::TcpOptionTS(3060;3030) ns3::TcpOptionEnd(EOL)) Payload Fragment [680:1216]
+ 3.06006 /NodeList/2/DeviceList/0/$ns3::PointToPointNetDevice/TxQueue/Enqueue ns3::PppHeader (Point-to-Point Protocol: IP (0x0021)) ns3::Ipv4Header (tos 0x0 DSCP Default ECN Not-ECT ttl 64 id 9 protocol 6 offset (bytes) 0 flags [none] length: 588 10.1.1.1 > 10.2.1.1) ns3::TcpHeader (49153 > 5000 [ACK] Seq=3217 Ack=1 Win=32768 ns3::TcpOptionTS(3060;3030) ns3::TcpOptionEnd(EOL)) Payload Fragment [1216:1752]
+ 3.06006 /NodeList/2/DeviceList/0/$ns3::PointToPointNetDevice/TxQueue/Enqueue ns3::PppHeader (Point-to-Point Protocol: IP (0x0021)) ns3::Ipv4Header (tos 0x0 DSCP Default ECN Not-ECT ttl 64 id 10 protocol 6 offset (bytes) 0 flags [none] length: 588 10.1.1.1 > 10.2.1.1) ns3::TcpHeader (49153 > 5000 [ACK] Seq=3753 Ack=1 Win=32768 ns3::TcpOptionTS(3060;3030) ns3::TcpOptionEnd(EOL)) Payload Fragment [1752:2000] Payload Fragment [0:288]
+ 3.06006 /NodeList/2/DeviceList/0/$ns3::PointToPointNetDevice/TxQueue/Enqueue ns3::PppHeader (Point-to-Point Protocol: IP (0x0021)) ns3::Ipv4Header (tos 0x0 DSCP Default ECN Not-ECT ttl 64 id 11 protocol 6 offset (bytes) 0 flags [none] length: 588 10.1.1.1 > 10.2.1.1) ns3::TcpHeader (49153 > 5000 [ACK] Seq=4289 Ack=1 Win=32768 ns3::TcpOptionTS(3060;3030) ns3::TcpOptionEnd(EOL)) Payload Fragment [288:824]
+ 3.06006 /NodeList/2/DeviceList/0/$ns3::PointToPointNetDevice/TxQueue/Enqueue ns3::PppHeader (Point-to-Point Protocol: IP (0x0021)) ns3::Ipv4Header (tos 0x0 DSCP Default ECN Not-ECT ttl 64 id 12 protocol 6 offset (bytes) 0 flags [none] length: 588 10.1.1.1 > 10.2.1.1) ns3::TcpHeader (49153 > 5000 [ACK] Seq=4825 Ack=1 Win=32768 ns3::TcpOptionTS(3060;3030) ns3::TcpOptionEnd(EOL)) Payload Fragment [824:1360]
- 3.06006 /NodeList/2/DeviceList/0/$ns3::PointToPointNetDevice/TxQueue/Dequeue ns3::PppHeader (Point-to-Point Protocol: IP (0x0021)) ns3::Ipv4Header (tos 0x0 DSCP Default ECN Not-ECT ttl 64 id 3 protocol 6 offset (bytes) 0 flags [none] length: 588 10.1.1.1 > 10.2.1.1) ns3::TcpHeader (49153 > 5000 [ACK] Seq=1 Ack=1 Win=32768 ns3::TcpOptionTS(3060;3030) ns3::TcpOptionEnd(EOL)) Payload Fragment [0:536]
- 3.06016 /NodeList/2/DeviceList/0/$ns3::PointToPointNetDevice/TxQueue/Dequeue ns3::PppHeader (Point-to-Point Protocol: IP (0x0021)) ns3::Ipv4Header (tos 0x0 DSCP Default ECN Not-ECT ttl 64 id 4 protocol 6 offset (bytes) 0 flags [none] length: 588 10.1.1.1 > 10.2.1.1) ns3::TcpHeader (49153 > 5000 [ACK] Seq=537 Ack=1 Win=32768 ns3::TcpOptionTS(3060;3030) ns3::TcpOptionEnd(EOL)) Payload Fragment [536:1072]
- 3.06025 /NodeList/2/DeviceList/0/$ns3::PointToPointNetDevice/TxQueue/Dequeue ns3::PppHeader (Point-to-Point Protocol: IP (0x0021)) ns3::Ipv4Header (tos 0x0 DSCP Default ECN Not-ECT ttl 64 id 5 protocol 6 offset (bytes) 0 flags [none] length: 588 10.1.1.1 > 10.2.1.1) ns3::TcpHeader (49153 > 5000 [ACK] Seq=1073 Ack=1 Win=32768 ns3::TcpOptionTS(3060;3030) ns3::TcpOptionEnd(EOL)) Payload Fragment [1072:1608]
- 3.06035 /NodeList/2/DeviceList/0/$ns3::PointToPointNetDevice/TxQueue/Dequeue ns3::PppHeader (Point-to-Point Protocol: IP (0x0021)) ns3::Ipv4Header (tos 0x0 DSCP Default ECN Not-ECT ttl 64 id 6 protocol 6 offset (bytes) 0 flags [none] length: 588 10.1.1.1 > 10.2.1.1) ns3::TcpHeader (49153 > 5000 [ACK] Seq=1609 Ack=1 Win=32768 ns3::TcpOptionTS(3060;3030) ns3::TcpOptionEnd(EOL)) Payload Fragment [1608:2000] Payload Fragment [0:144]
- 3.06044 /NodeList/2/DeviceList/0/$ns3::PointToPointNetDevice/TxQueue/Dequeue ns3::PppHeader (Point-to-Point Protocol: IP (0x0021)) ns3::Ipv4Header (tos 0x0 DSCP Default ECN Not-ECT ttl 64 id 7 protocol 6 offset (bytes) 0 flags [none] length: 588 10.1.1.1 > 10.2.1.1) ns3::TcpHeader (49153 > 5000 [ACK] Seq=2145 Ack=1 Win=32768 ns3::TcpOptionTS(3060;3030) ns3::TcpOptionEnd(EOL)) Payload Fragment [144:680]
- 3.06054 /NodeList/2/DeviceList/0/$ns3::PointToPointNetDevice/TxQueue/Dequeue ns3::PppHeader (Point-to-Point Protocol: IP (0x0021)) ns3::Ipv4Header (tos 0x0 DSCP Default ECN Not-ECT ttl 64 id 8 protocol 6 offset (bytes) 0 flags [none] length: 588 10.1.1.1 > 10.2.1.1) ns3::TcpHeader (49153 > 5000 [ACK] Seq=2681 Ack=1 Win=32768 ns3::TcpOptionTS(3060;3030) ns3::TcpOptionEnd(EOL)) Payload Fragment [680:1216]
- 3.06063 /NodeList/2/DeviceList/0/$ns3::PointToPointNetDevice/TxQueue/Dequeue ns3::PppHeader (Point-to-Point Protocol: IP (0x0021)) ns3::Ipv4Header (tos 0x0 DSCP Default ECN Not-ECT ttl 64 id 9 protocol 6 offset (bytes) 0 flags [none] length: 588 10.1.1.1 > 10.2.1.1) ns3::TcpHeader (49153 > 5000 [ACK] Seq=3217 Ack=1 Win=32768 ns3::TcpOptionTS(3060;3030) ns3::TcpOptionEnd(EOL)) Payload Fragment [1216:1752]
- 3.06073 /NodeList/2/DeviceList/0/$ns3::PointToPointNetDevice/TxQueue/Dequeue ns3::PppHeader (Point-to-Point Protocol: IP (0x0021)) ns3::Ipv4Header (tos 0x0 DSCP Default ECN Not-ECT ttl 64 id 10 protocol 6 offset (bytes) 0 flags [none] length: 588 10.1.1.1 > 10.2.1.1) ns3::TcpHeader (49153 > 5000 [ACK] Seq=3753 Ack=1 Win=32768 ns3::TcpOptionTS(3060;3030) ns3::TcpOptionEnd(EOL)) Payload Fragment [1752:2000] Payload Fragment [0:288]
- 3.06082 /NodeList/2/DeviceList/0/$ns3::PointToPointNetDevice/TxQueue/Dequeue ns3::PppHeader (Point-to-Point Protocol: IP (0x0021)) ns3::Ipv4Header (tos 0x0 DSCP Default ECN Not-ECT ttl 64 id 11 protocol 6 offset (bytes) 0 flags [none] length: 588 10.1.1.1 > 10.2.1.1) ns3::TcpHeader (49153 > 5000 [ACK] Seq=4289 Ack=1 Win=32768 ns3::TcpOptionTS(3060;3030) ns3::TcpOptionEnd(EOL)) Payload Fragment [288:824]
- 3.06091 /NodeList/2/DeviceList/0/$ns3::PointToPointNetDevice/TxQueue/Dequeue ns3::PppHeader (Point-to-Point Protocol: IP (0x0021)) ns3::Ipv4Header (tos 0x0 DSCP Default ECN Not-ECT ttl 64 id 12 protocol 6 offset (bytes) 0 flags [none] length: 588 10.1.1.1 > 10.2.1.1) ns3::TcpHeader (49153 > 5000 [ACK] Seq=4825 Ack=1 Win=32768 ns3::TcpOptionTS(3060;3030) ns3::TcpOptionEnd(EOL)) Payload Fragment [824:1360]
r 3.07006 /NodeList/0/DeviceList/1/$ns3::PointToPointNetDevice/MacRx ns3::PppHeader (Point-to-Point Protocol: IP (0x0021)) ns3::Ipv4Header (tos 0x0 DSCP Default ECN Not-ECT ttl 64 id 2 protocol 6 offset (bytes) 0 flags [none] length: 52 10.1.1.1 > 10.2.1.1) ns3::TcpHeader (49153 > 5000 [ACK] Seq=1 Ack=1 Win=32768 ns3::TcpOptionTS(3060;3030) ns3::TcpOptionEnd(EOL))
+ 3.07006 /NodeList/0/DeviceList/0/$ns3::PointToPointNetDevice/TxQueue/Enqueue ns3::PppHeader (Point-to-Point Protocol: IP (0x0021)) ns3::Ipv4Header (tos 0x0 DSCP Default ECN Not-ECT ttl 63 id 2 protocol 6 offset (bytes) 0 flags [none] length: 52 10.1.1.1 > 10.2.1.1) ns3::TcpHeader (49153 > 5000 [ACK] Seq=1 Ack=1 Win=32768 ns3::TcpOptionTS(3060;3030) ns3::TcpOptionEnd(EOL))
- 3.07006 /NodeList/0/DeviceList/0/$ns3::PointToPointNetDevice/TxQueue/Dequeue ns3::PppHeader (Point-to-Point Protocol: IP (0x0021)) ns3::Ipv4Header (tos 0x0 DSCP Default ECN Not-ECT ttl 63 id 2 protocol 6 offset (bytes) 0 flags [none] length: 52 10.1.1.1 > 10.2.1.1) ns3::TcpHeader (49153 > 5000 [ACK] Seq=1 Ack=1 Win=32768 ns3::TcpOptionTS(3060;3030) ns3::TcpOptionEnd(EOL))
r 3.07016 /NodeList/0/DeviceList/1/$ns3::PointToPointNetDevice/MacRx ns3::PppHeader (Point-to-Point Protocol: IP (0x0021)) ns3::Ipv4Header (tos 0x0 DSCP Default ECN Not-ECT ttl 64 id 3 protocol 6 offset (bytes) 0 flags [none] length: 588 10.1.1.1 > 10.2.1.1) ns3::TcpHeader (49153 > 5000 [ACK] Seq=1 Ack=1 Win=32768 ns3::TcpOptionTS(3060;3030) ns3::TcpOptionEnd(EOL)) Payload Fragment [0:536]
+ 3.07016 /NodeList/0/DeviceList/0/$ns3::PointToPointNetDevice/TxQueue/Enqueue ns3::PppHeader (Point-to-Point Protocol: IP (0x0021)) ns3::Ipv4Header (tos 0x0 DSCP Default ECN Not-ECT ttl 63 id 3 protocol 6 offset (bytes) 0 flags [none] length: 588 10.1.1.1 > 10.2.1.1) ns3::TcpHeader (49153 > 5000 [ACK] Seq=1 Ack=1 Win=32768 ns3::TcpOptionTS(3060;3030) ns3::TcpOptionEnd(EOL)) Payload Fragment [0:536]
- 3.07016 /NodeList/0/DeviceList/0/$ns3::PointToPointNetDevice/TxQueue/Dequeue ns3::PppHeader (Point-to-Point Protocol: IP (0x0021)) ns3::Ipv4Header (tos 0x0 DSCP Default ECN Not-ECT ttl 63 id 3 protocol 6 offset (bytes) 0 flags [none] length: 588 10.1.1.1 > 10.2.1.1) ns3::TcpHeader (49153 > 5000 [ACK] Seq=1 Ack=1 Win=32768 ns3::TcpOptionTS(3060;3030) ns3::TcpOptionEnd(EOL)) Payload Fragment [0:536]
r 3.07025 /NodeList/0/DeviceList/1/$ns3::PointToPointNetDevice/MacRx ns3::PppHeader (Point-to-Point Protocol: IP (0x0021)) ns3::Ipv4Header (tos 0x0 DSCP Default ECN Not-ECT ttl 64 id 4 protocol 6 offset (bytes) 0 flags [none] length: 588 10.1.1.1 > 10.2.1.1) ns3::TcpHeader (49153 > 5000 [ACK] Seq=537 Ack=1 Win=32768 ns3::TcpOptionTS(3060;3030) ns3::TcpOptionEnd(EOL)) Payload Fragment [536:1072]
+ 3.07025 /NodeList/0/DeviceList/0/$ns3::PointToPointNetDevice/TxQueue/Enqueue ns3::PppHeader (Point-to-Point Protocol: IP (0x0021)) ns3::Ipv4Header (tos 0x0 DSCP Default ECN Not-ECT ttl 63 id 4 protocol 6 offset (bytes) 0 flags [none] length: 588 10.1.1.1 > 10.2.1.1) ns3::TcpHeader (49153 > 5000 [ACK] Seq=537 Ack=1 Win=32768 ns3::TcpOptionTS(3060;3030) ns3::TcpOptionEnd(EOL)) Payload Fragment [536:1072]
- 3.07025 /NodeList/0/DeviceList/0/$ns3::PointToPointNetDevice/TxQueue/Dequeue ns3::PppHeader (Point-to-Point Protocol: IP (0x0021)) ns3::Ipv4Header (tos 0x0 DSCP Default ECN Not-ECT ttl 63 id 4 protocol 6 offset (bytes) 0 flags [none] length: 588 10.1.1.1 > 10.2.1.1) ns3::TcpHeader (49153 > 5000 [ACK] Seq=537 Ack=1 Win=32768 ns3::TcpOptionTS(3060;3030) ns3::TcpOptionEnd(EOL)) Payload Fragment [536:1072]
r 3.07035 /NodeList/0/DeviceList/1/$ns3::PointToPointNetDevice/MacRx ns3::PppHeader (Point-to-Point Protocol: IP (0x0021)) ns3::Ipv4Header (tos 0x0 DSCP Default ECN Not-ECT ttl 64 id 5 protocol 6 offset (bytes) 0 flags [none] length: 588 10.1.1.1 > 10.2.1.1) ns3::TcpHeader (49153 > 5000 [ACK] Seq=1073 Ack=1 Win=32768 ns3::TcpOptionTS(3060;3030) ns3::TcpOptionEnd(EOL)) Payload Fragment [1072:1608]
+ 3.07035 /NodeList/0/DeviceList/0/$ns3::PointToPointNetDevice/TxQueue/Enqueue ns3::PppHeader (Point-to-Point Protocol: IP (0x0021)) ns3::Ipv4Header (tos 0x0 DSCP Default ECN Not-ECT ttl 63 id 5 protocol 6 offset (bytes) 0 flags [none] length: 588 10.1.1.1 > 10.2.1.1) ns3::TcpHeader (49153 > 5000 [ACK] Seq=1073 Ack=1 Win=32768 ns3::TcpOptionTS(3060;3030) ns3::TcpOptionEnd(EOL)) Payload Fragment [1072:1608]
- 3.07035 /NodeList/0/DeviceList/0/$ns3::PointToPointNetDevice/TxQueue/Dequeue ns3::PppHeader (Point-to-Point Protocol: IP (0x0021)) ns3::Ipv4Header (tos 0x0 DSCP Default ECN Not-ECT ttl 63 id 5 protocol 6 offset (bytes) 0 flags [none] length: 588 10.1.1.1 > 10.2.1.1) ns3::TcpHeader (49153 > 5000 [ACK] Seq=1073 Ack=1 Win=32768 ns3::TcpOptionTS(3060;3030) ns3::TcpOptionEnd(EOL)) Payload Fragment [1072:1608]
r 3.07044 /NodeList/0/DeviceList/1/$ns3::PointToPointNetDevice/MacRx ns3::PppHeader (Point-to-Point Protocol: IP (0x0021)) ns3::Ipv4Header (tos 0x0 DSCP Default ECN Not-ECT ttl 64 id 6 protocol 6 offset (bytes) 0 flags [none] length: 588 10.1.1.1 > 10.2.1.1) ns3::TcpHeader (49153 > 5000 [ACK] Seq=1609 Ack=1 Win=32768 ns3::TcpOptionTS(3060;3030) ns3::TcpOptionEnd(EOL)) Payload Fragment [1608:2000] Payload Fragment [0:144]
+ 3.07044 /NodeList/0/DeviceList/0/$ns3::PointToPointNetDevice/TxQueue/Enqueue ns3::PppHeader (Point-to-Point Protocol: IP (0x0021)) ns3::Ipv4Header (tos 0x0 DSCP Default ECN Not-ECT ttl 63 id 6 protocol 6 offset (bytes) 0 flags [none] length: 588 10.1.1.1 > 10.2.1.1) ns3::TcpHeader (49153 > 5000 [ACK] Seq=1609 Ack=1 Win=32768 ns3::TcpOptionTS(3060;3030) ns3::TcpOptionEnd(EOL)) Payload Fragment [1608:2000] Payload Fragment [0:144]
- 3.07044 /NodeList/0/DeviceList/0/$ns3::PointToPointNetDevice/TxQueue/Dequeue ns3::PppHeader (Point-to-Point Protocol: IP (0x0021)) ns3::Ipv4Header (tos 0x0 DSCP Default ECN Not-ECT ttl 63 id 6 protocol 6 offset (bytes) 0 flags [none] length: 588 10.1.1.1 > 10.2.1.1) ns3::TcpHeader (49153 > 5000 [ACK] Seq=1609 Ack=1 Win=32768 ns3::TcpOptionTS(3060;3030) ns3::TcpOptionEnd(EOL)) Payload Fragment [1608:2000] Payload Fragment [0:144]
r 3.07054 /NodeList/0/DeviceList/1/$ns3::PointToPointNetDevice/MacRx ns3::PppHeader (Point-to-Point Protocol: IP (0x0021)) ns3::Ipv4Header (tos 0x0 DSCP Default ECN Not-ECT ttl 64 id 7 protocol 6 offset (bytes) 0 flags [none] length: 588 10.1.1.1 > 10.2.1.1) ns3::TcpHeader (49153 > 5000 [ACK] Seq=2145 Ack=1 Win=32768 ns3::TcpOptionTS(3060;3030) ns3::TcpOptionEnd(EOL)) Payload Fragment [144:680]
+ 3.07054 /NodeList/0/DeviceList/0/$ns3::PointToPointNetDevice/TxQueue/Enqueue ns3::PppHeader (Point-to-Point Protocol: IP (0x0021)) ns3::Ipv4Header (tos 0x0 DSCP Default ECN Not-ECT ttl 63 id 7 protocol 6 offset (bytes) 0 flags [none] length: 588 10.1.1.1 > 10.2.1.1) ns3::TcpHeader (49153 > 5000 [ACK] Seq=2145 Ack=1 Win=32768 ns3::TcpOptionTS(3060;3030) ns3::TcpOptionEnd(EOL)) Payload Fragment [144:680]
- 3.07054 /NodeList/0/DeviceList/0/$ns3::PointToPointNetDevice/TxQueue/Dequeue ns3::PppHeader (Point-to-Point Protocol: IP (0x0021)) ns3::Ipv4Header (tos 0x0 DSCP Default ECN Not-ECT ttl 63 id 7 protocol 6 offset (bytes) 0 flags [none] length: 588 10.1.1.1 > 10.2.1.1) ns3::TcpHeader (49153 > 5000 [ACK] Seq=2145 Ack=1 Win=32768 ns3::TcpOptionTS(3060;3030) ns3::TcpOptionEnd(EOL)) Payload Fragment [144:680]
r 3.07063 /NodeList/0/DeviceList/1/$ns3::PointToPointNetDevice/MacRx ns3::PppHeader (Point-to-Point Protocol: IP (0x0021)) ns3::Ipv4Header (tos 0x0 DSCP Default ECN Not-ECT ttl 64 id 8 protocol 6 offset (bytes) 0 flags [none] length: 588 10.1.1.1 > 10.2.1.1) ns3::TcpHeader (49153 > 5000 [ACK] Seq=2681 Ack=1 Win=32768 ns3::TcpOptionTS(3060;3030) ns3::TcpOptionEnd(EOL)) Payload Fragment [680:1216]