+ 0 /NodeList/2/DeviceList/0/$ns3::PointToPointNetDevice/TxQueue/Enqueue ns3::PppHeader (Point-to-Point Protocol: IP (0x0021)) ns3::Ipv4Header (tos 0x0 DSCP Default ECN Not-ECT ttl 64 id 0 protocol 6 offset (bytes) 0 flags [none] length: 56 10.1.1.1 > 10.2.1.1) ns3::TcpHeader (49153 > 5000 [SYN] Seq=0 Ack=0 Win=65535 ns3::TcpOptionTS(0;0) ns3::TcpOptionWinScale(2) ns3::TcpOptionSackPermitted([sack_perm]) ns3::TcpOptionEnd(EOL))
- 0 /NodeList/2/DeviceList/0/$ns3::PointToPointNetDevice/TxQueue/Dequeue ns3::PppHeader (Point-to-Point Protocol: IP (0x0021)) ns3::Ipv4Header (tos 0x0 DSCP Default ECN Not-ECT ttl 64 id 0 protocol 6 offset (bytes) 0 flags [none] length: 56 10.1.1.1 > 10.2.1.1) ns3::TcpHeader (49153 > 5000 [SYN] Seq=0 Ack=0 Win=65535 ns3::TcpOptionTS(0;0) ns3::TcpOptionWinScale(2) ns3::TcpOptionSackPermitted([sack_perm]) ns3::TcpOptionEnd(EOL))
r 0.0101547 /NodeList/0/DeviceList/1/$ns3::PointToPointNetDevice/MacRx ns3::PppHeader (Point-to-Point Protocol: IP (0x0021)) ns3::Ipv4Header (tos 0x0 DSCP Default ECN Not-ECT ttl 64 id 0 protocol 6 offset (bytes) 0 flags [none] length: 56 10.1.1.1 > 10.2.1.1) ns3::TcpHeader (49153 > 5000 [SYN] Seq=0 Ack=0 Win=65535 ns3::TcpOptionTS(0;0) ns3::TcpOptionWinScale(2) ns3::TcpOptionSackPermitted([sack_perm]) ns3::TcpOptionEnd(EOL))
+ 0.0101547 /NodeList/0/DeviceList/0/$ns3::PointToPointNetDevice/TxQueue/Enqueue ns3::PppHeader (Point-to-Point Protocol: IP (0x0021)) ns3::Ipv4Header (tos 0x0 DSCP Default ECN Not-ECT ttl 63 id 0 protocol 6 offset (bytes) 0 flags [none] length: 56 10.1.1.1 > 10.2.1.1) ns3::TcpHeader (49153 > 5000 [SYN] Seq=0 Ack=0 Win=65535 ns3::TcpOptionTS(0;0) ns3::TcpOptionWinScale(2) ns3::TcpOptionSackPermitted([sack_perm]) ns3::TcpOptionEnd(EOL))
- 0.0101547 /NodeList/0/DeviceList/0/$ns3::PointToPointNetDevice/TxQueue/Dequeue ns3::PppHeader (Point-to-Point Protocol: IP (0x0021)) ns3::Ipv4Header (tos 0x0 DSCP Default ECN Not-ECT ttl 63 id 0 protocol 6 offset (bytes) 0 flags [none] length: 56 10.1.1.1 > 10.2.1.1) ns3::TcpHeader (49153 > 5000 [SYN] Seq=0 Ack=0 Win=65535 ns3::TcpOptionTS(0;0) ns3::TcpOptionWinScale(2) ns3::TcpOptionSackPermitted([sack_perm]) ns3::TcpOptionEnd(EOL))
r 0.020464 /NodeList/1/DeviceList/0/$ns3::PointToPointNetDevice/MacRx ns3::PppHeader (Point-to-Point Protocol: IP (0x0021)) ns3::Ipv4Header (tos 0x0 DSCP Default ECN Not-ECT ttl 63 id 0 protocol 6 offset (bytes) 0 flags [none] length: 56 10.1.1.1 > 10.2.1.1) ns3::TcpHeader (49153 > 5000 [SYN] Seq=0 Ack=0 Win=65535 ns3::TcpOptionTS(0;0) ns3::TcpOptionWinScale(2) ns3::TcpOptionSackPermitted([sack_perm]) ns3::TcpOptionEnd(EOL))
+ 0.020464 /NodeList/1/DeviceList/1/$ns3::PointToPointNetDevice/TxQueue/Enqueue ns3::PppHeader (Point-to-Point Protocol: IP (0x0021)) ns3::Ipv4Header (tos 0x0 DSCP Default ECN Not-ECT ttl 62 id 0 protocol 6 offset (bytes) 0 flags [none] length: 56 10.1.1.1 > 10.2.1.1) ns3::TcpHeader (49153 > 5000 [SYN] Seq=0 Ack=0 Win=65535 ns3::TcpOptionTS(0;0) ns3::TcpOptionWinScale(2) ns3::TcpOptionSackPermitted([sack_perm]) ns3::TcpOptionEnd(EOL))
- 0.020464 /NodeList/1/DeviceList/1/$ns3::PointToPointNetDevice/TxQueue/Dequeue ns3::PppHeader (Point-to-Point Protocol: IP (0x0021)) ns3::Ipv4Header (tos 0x0 DSCP Default ECN Not-ECT ttl 62 id 0 protocol 6 offset (bytes) 0 flags [none] length: 56 10.1.1.1 > 10.2.1.1) ns3::TcpHeader (49153 > 5000 [SYN] Seq=0 Ack=0 Win=65535 ns3::TcpOptionTS(0;0) ns3::TcpOptionWinScale(2) ns3::TcpOptionSackPermitted([sack_perm]) ns3::TcpOptionEnd(EOL))
r 0.0306187 /NodeList/4/DeviceList/0/$ns3::PointToPointNetDevice/MacRx ns3::PppHeader (Point-to-Point Protocol: IP (0x0021)) ns3::Ipv4Header (tos 0x0 DSCP Default ECN Not-ECT ttl 62 id 0 protocol 6 offset (bytes) 0 flags [none] length: 56 10.1.1.1 > 10.2.1.1) ns3::TcpHeader (49153 > 5000 [SYN] Seq=0 Ack=0 Win=65535 ns3::TcpOptionTS(0;0) ns3::TcpOptionWinScale(2) ns3::TcpOptionSackPermitted([sack_perm]) ns3::TcpOptionEnd(EOL))
+ 0.0306187 /NodeList/4/DeviceList/0/$ns3::PointToPointNetDevice/TxQueue/Enqueue ns3::PppHeader (Point-to-Point Protocol: IP (0x0021)) ns3::Ipv4Header (tos 0x0 DSCP Default ECN Not-ECT ttl 64 id 0 protocol 6 offset (bytes) 0 flags [none] length: 56 10.2.1.1 > 10.1.1.1) ns3::TcpHeader (5000 > 49153 [SYN|ACK] Seq=0 Ack=1 Win=65535 ns3::TcpOptionTS(30;0) ns3::TcpOptionWinScale(2) ns3::TcpOptionSackPermitted([sack_perm]) ns3::TcpOptionEnd(EOL))
- 0.0306187 /NodeList/4/DeviceList/0/$ns3::PointToPointNetDevice/TxQueue/Dequeue ns3::PppHeader (Point-to-Point Protocol: IP (0x0021)) ns3::Ipv4Header (tos 0x0 DSCP Default ECN Not-ECT ttl 64 id 0 protocol 6 offset (bytes) 0 flags [none] length: 56 10.2.1.1 > 10.1.1.1) ns3::TcpHeader (5000 > 49153 [SYN|ACK] Seq=0 Ack=1 Win=65535 ns3::TcpOptionTS(30;0) ns3::TcpOptionWinScale(2) ns3::TcpOptionSackPermitted([sack_perm]) ns3::TcpOptionEnd(EOL))
r 0.0407733 /NodeList/1/DeviceList/1/$ns3::PointToPointNetDevice/MacRx ns3::PppHeader (Point-to-Point Protocol: IP (0x0021)) ns3::Ipv4Header (tos 0x0 DSCP Default ECN Not-ECT ttl 64 id 0 protocol 6 offset (bytes) 0 flags [none] length: 56 10.2.1.1 > 10.1.1.1) ns3::TcpHeader (5000 > 49153 [SYN|ACK] Seq=0 Ack=1 Win=65535 ns3::TcpOptionTS(30;0) ns3::TcpOptionWinScale(2) ns3::TcpOptionSackPermitted([sack_perm]) ns3::TcpOptionEnd(EOL))
+ 0.0407733 /NodeList/1/DeviceList/0/$ns3::PointToPointNetDevice/TxQueue/Enqueue ns3::PppHeader (Point-to-Point Protocol: IP (0x0021)) ns3::Ipv4Header (tos 0x0 DSCP Default ECN Not-ECT ttl 63 id 0 protocol 6 offset (bytes) 0 flags [none] length: 56 10.2.1.1 > 10.1.1.1) ns3::TcpHeader (5000 > 49153 [SYN|ACK] Seq=0 Ack=1 Win=65535 ns3::TcpOptionTS(30;0) ns3::TcpOptionWinScale(2) ns3::TcpOptionSackPermitted([sack_perm]) ns3::TcpOptionEnd(EOL))
- 0.0407733 /NodeList/1/DeviceList/0/$ns3::PointToPointNetDevice/TxQueue/Dequeue ns3::PppHeader (Point-to-Point Protocol: IP (0x0021)) ns3::Ipv4Header (tos 0x0 DSCP Default ECN Not-ECT ttl 63 id 0 protocol 6 offset (bytes) 0 flags [none] length: 56 10.2.1.1 > 10.1.1.1) ns3::TcpHeader (5000 > 49153 [SYN|ACK] Seq=0 Ack=1 Win=65535 ns3::TcpOptionTS(30;0) ns3::TcpOptionWinScale(2) ns3::TcpOptionSackPermitted([sack_perm]) ns3::TcpOptionEnd(EOL))
r 0.0510827 /NodeList/0/DeviceList/0/$ns3::PointToPointNetDevice/MacRx ns3::PppHeader (Point-to-Point Protocol: IP (0x0021)) ns3::Ipv4Header (tos 0x0 DSCP Default ECN Not-ECT ttl 63 id 0 protocol 6 offset (bytes) 0 flags [none] length: 56 10.2.1.1 > 10.1.1.1) ns3::TcpHeader (5000 > 49153 [SYN|ACK] Seq=0 Ack=1 Win=65535 ns3::TcpOptionTS(30;0) ns3::TcpOptionWinScale(2) ns3::TcpOptionSackPermitted([sack_perm]) ns3::TcpOptionEnd(EOL))
+ 0.0510827 /NodeList/0/DeviceList/1/$ns3::PointToPointNetDevice/TxQueue/Enqueue ns3::PppHeader (Point-to-Point Protocol: IP (0x0021)) ns3::Ipv4Header (tos 0x0 DSCP Default ECN Not-ECT ttl 62 id 0 protocol 6 offset (bytes) 0 flags [none] length: 56 10.2.1.1 > 10.1.1.1) ns3::TcpHeader (5000 > 49153 [SYN|ACK] Seq=0 Ack=1 Win=65535 ns3::TcpOptionTS(30;0) ns3::TcpOptionWinScale(2) ns3::TcpOptionSackPermitted([sack_perm]) ns3::TcpOptionEnd(EOL))
- 0.0510827 /NodeList/0/DeviceList/1/$ns3::PointToPointNetDevice/TxQueue/Dequeue ns3::PppHeader (Point-to-Point Protocol: IP (0x0021)) ns3::Ipv4Header (tos 0x0 DSCP Default ECN Not-ECT ttl 62 id 0 protocol 6 offset (bytes) 0 flags [none] length: 56 10.2.1.1 > 10.1.1.1) ns3::TcpHeader (5000 > 49153 [SYN|ACK] Seq=0 Ack=1 Win=65535 ns3::TcpOptionTS(30;0) ns3::TcpOptionWinScale(2) ns3::TcpOptionSackPermitted([sack_perm]) ns3::TcpOptionEnd(EOL))
r 0.0612373 /NodeList/2/DeviceList/0/$ns3::PointToPointNetDevice/MacRx ns3::PppHeader (Point-to-Point Protocol: IP (0x0021)) ns3::Ipv4Header (tos 0x0 DSCP Default ECN Not-ECT ttl 62 id 0 protocol 6 offset (bytes) 0 flags [none] length: 56 10.2.1.1 > 10.1.1.1) ns3::TcpHeader (5000 > 49153 [SYN|ACK] Seq=0 Ack=1 Win=65535 ns3::TcpOptionTS(30;0) ns3::TcpOptionWinScale(2) ns3::TcpOptionSackPermitted([sack_perm]) ns3::TcpOptionEnd(EOL))
+ 0.0612373 /NodeList/2/DeviceList/0/$ns3::PointToPointNetDevice/TxQueue/Enqueue ns3::PppHeader (Point-to-Point Protocol: IP (0x0021)) ns3::Ipv4Header (tos 0x0 DSCP Default ECN Not-ECT ttl 64 id 1 protocol 6 offset (bytes) 0 flags [none] length: 52 10.1.1.1 > 10.2.1.1) ns3::TcpHeader (49153 > 5000 [ACK] Seq=1 Ack=1 Win=32768 ns3::TcpOptionTS(61;30) ns3::TcpOptionEnd(EOL))
- 0.0612373 /NodeList/2/DeviceList/0/$ns3::PointToPointNetDevice/TxQueue/Dequeue ns3::PppHeader (Point-to-Point Protocol: IP (0x0021)) ns3::Ipv4Header (tos 0x0 DSCP Default ECN Not-ECT ttl 64 id 1 protocol 6 offset (bytes) 0 flags [none] length: 52 10.1.1.1 > 10.2.1.1) ns3::TcpHeader (49153 > 5000 [ACK] Seq=1 Ack=1 Win=32768 ns3::TcpOptionTS(61;30) ns3::TcpOptionEnd(EOL))
+ 0.0612373 /NodeList/2/DeviceList/0/$ns3::PointToPointNetDevice/TxQueue/Enqueue ns3::PppHeader (Point-to-Point Protocol: IP (0x0021)) ns3::Ipv4Header (tos 0x0 DSCP Default ECN Not-ECT ttl 64 id 2 protocol 6 offset (bytes) 0 flags [none] length: 588 10.1.1.1 > 10.2.1.1) ns3::TcpHeader (49153 > 5000 [ACK] Seq=1 Ack=1 Win=32768 ns3::TcpOptionTS(61;30) ns3::TcpOptionEnd(EOL)) Payload Fragment [0:536]
+ 0.0612373 /NodeList/2/DeviceList/0/$ns3::PointToPointNetDevice/TxQueue/Enqueue ns3::PppHeader (Point-to-Point Protocol: IP (0x0021)) ns3::Ipv4Header (tos 0x0 DSCP Default ECN Not-ECT ttl 64 id 3 protocol 6 offset (bytes) 0 flags [none] length: 588 10.1.1.1 > 10.2.1.1) ns3::TcpHeader (49153 > 5000 [ACK] Seq=537 Ack=1 Win=32768 ns3::TcpOptionTS(61;30) ns3::TcpOptionEnd(EOL)) Payload Fragment [536:1072]
+ 0.0612373 /NodeList/2/DeviceList/0/$ns3::PointToPointNetDevice/TxQueue/Enqueue ns3::PppHeader (Point-to-Point Protocol: IP (0x0021)) ns3::Ipv4Header (tos 0x0 DSCP Default ECN Not-ECT ttl 64 id 4 protocol 6 offset (bytes) 0 flags [none] length: 588 10.1.1.1 > 10.2.1.1) ns3::TcpHeader (49153 > 5000 [ACK] Seq=1073 Ack=1 Win=32768 ns3::TcpOptionTS(61;30) ns3::TcpOptionEnd(EOL)) Payload Fragment [1072:1608]
+ 0.0612373 /NodeList/2/DeviceList/0/$ns3::PointToPointNetDevice/TxQueue/Enqueue ns3::PppHeader (Point-to-Point Protocol: IP (0x0021)) ns3::Ipv4Header (tos 0x0 DSCP Default ECN Not-ECT ttl 64 id 5 protocol 6 offset (bytes) 0 flags [none] length: 588 10.1.1.1 > 10.2.1.1) ns3::TcpHeader (49153 > 5000 [ACK] Seq=1609 Ack=1 Win=32768 ns3::TcpOptionTS(61;30) ns3::TcpOptionEnd(EOL)) Payload Fragment [1608:2000] Payload Fragment [0:144]
+ 0.0612373 /NodeList/2/DeviceList/0/$ns3::PointToPointNetDevice/TxQueue/Enqueue ns3::PppHeader (Point-to-Point Protocol: IP (0x0021)) ns3::Ipv4Header (tos 0x0 DSCP Default ECN Not-ECT ttl 64 id 6 protocol 6 offset (bytes) 0 flags [none] length: 588 10.1.1.1 > 10.2.1.1) ns3::TcpHeader (49153 > 5000 [ACK] Seq=2145 Ack=1 Win=32768 ns3::TcpOptionTS(61;30) ns3::TcpOptionEnd(EOL)) Payload Fragment [144:680]
+ 0.0612373 /NodeList/2/DeviceList/0/$ns3::PointToPointNetDevice/TxQueue/Enqueue ns3::PppHeader (Point-to-Point Protocol: IP (0x0021)) ns3::Ipv4Header (tos 0x0 DSCP Default ECN Not-ECT ttl 64 id 7 protocol 6 offset (bytes) 0 flags [none] length: 588 10.1.1.1 > 10.2.1.1) ns3::TcpHeader (49153 > 5000 [ACK] Seq=2681 Ack=1 Win=32768 ns3::TcpOptionTS(61;30) ns3::TcpOptionEnd(EOL)) Payload Fragment [680:1216]
+ 0.0612373 /NodeList/2/DeviceList/0/$ns3::PointToPointNetDevice/TxQueue/Enqueue ns3::PppHeader (Point-to-Point Protocol: IP (0x0021)) ns3::Ipv4Header (tos 0x0 DSCP Default ECN Not-ECT ttl 64 id 8 protocol 6 offset (bytes) 0 flags [none] length: 588 10.1.1.1 > 10.2.1.1) ns3::TcpHeader (49153 > 5000 [ACK] Seq=3217 Ack=1 Win=32768 ns3::TcpOptionTS(61;30) ns3::TcpOptionEnd(EOL)) Payload Fragment [1216:1752]
+ 0.0612373 /NodeList/2/DeviceList/0/$ns3::PointToPointNetDevice/TxQueue/Enqueue ns3::PppHeader (Point-to-Point Protocol: IP (0x0021)) ns3::Ipv4Header (tos 0x0 DSCP Default ECN Not-ECT ttl 64 id 9 protocol 6 offset (bytes) 0 flags [none] length: 588 10.1.1.1 > 10.2.1.1) ns3::TcpHeader (49153 > 5000 [ACK] Seq=3753 Ack=1 Win=32768 ns3::TcpOptionTS(61;30) ns3::TcpOptionEnd(EOL)) Payload Fragment [1752:2000] Payload Fragment [0:288]
+ 0.0612373 /NodeList/2/DeviceList/0/$ns3::PointToPointNetDevice/TxQueue/Enqueue ns3::PppHeader (Point-to-Point Protocol: IP (0x0021)) ns3::Ipv4Header (tos 0x0 DSCP Default ECN Not-ECT ttl 64 id 10 protocol 6 offset (bytes) 0 flags [none] length: 588 10.1.1.1 > 10.2.1.1) ns3::TcpHeader (49153 > 5000 [ACK] Seq=4289 Ack=1 Win=32768 ns3::TcpOptionTS(61;30) ns3::TcpOptionEnd(EOL)) Payload Fragment [288:824]
+ 0.0612373 /NodeList/2/DeviceList/0/$ns3::PointToPointNetDevice/TxQueue/Enqueue ns3::PppHeader (Point-to-Point Protocol: IP (0x0021)) ns3::Ipv4Header (tos 0x0 DSCP Default ECN Not-ECT ttl 64 id 11 protocol 6 offset (bytes) 0 flags [none] length: 588 10.1.1.1 > 10.2.1.1) ns3::TcpHeader (49153 > 5000 [ACK] Seq=4825 Ack=1 Win=32768 ns3::TcpOptionTS(61;30) ns3::TcpOptionEnd(EOL)) Payload Fragment [824:1360]
- 0.0613813 /NodeList/2/DeviceList/0/$ns3::PointToPointNetDevice/TxQueue/Dequeue ns3::PppHeader (Point-to-Point Protocol: IP (0x0021)) ns3::Ipv4Header (tos 0x0 DSCP Default ECN Not-ECT ttl 64 id 2 protocol 6 offset (bytes) 0 flags [none] length: 588 10.1.1.1 > 10.2.1.1) ns3::TcpHeader (49153 > 5000 [ACK] Seq=1 Ack=1 Win=32768 ns3::TcpOptionTS(61;30) ns3::TcpOptionEnd(EOL)) Payload Fragment [0:536]
- 0.0629547 /NodeList/2/DeviceList/0/$ns3::PointToPointNetDevice/TxQueue/Dequeue ns3::PppHeader (Point-to-Point Protocol: IP (0x0021)) ns3::Ipv4Header (tos 0x0 DSCP Default ECN Not-ECT ttl 64 id 3 protocol 6 offset (bytes) 0 flags [none] length: 588 10.1.1.1 > 10.2.1.1) ns3::TcpHeader (49153 > 5000 [ACK] Seq=537 Ack=1 Win=32768 ns3::TcpOptionTS(61;30) ns3::TcpOptionEnd(EOL)) Payload Fragment [536:1072]
- 0.064528 /NodeList/2/DeviceList/0/$ns3::PointToPointNetDevice/TxQueue/Dequeue ns3::PppHeader (Point-to-Point Protocol: IP (0x0021)) ns3::Ipv4Header (tos 0x0 DSCP Default ECN Not-ECT ttl 64 id 4 protocol 6 offset (bytes) 0 flags [none] length: 588 10.1.1.1 > 10.2.1.1) ns3::TcpHeader (49153 > 5000 [ACK] Seq=1073 Ack=1 Win=32768 ns3::TcpOptionTS(61;30) ns3::TcpOptionEnd(EOL)) Payload Fragment [1072:1608]
- 0.0661013 /NodeList/2/DeviceList/0/$ns3::PointToPointNetDevice/TxQueue/Dequeue ns3::PppHeader (Point-to-Point Protocol: IP (0x0021)) ns3::Ipv4Header (tos 0x0 DSCP Default ECN Not-ECT ttl 64 id 5 protocol 6 offset (bytes) 0 flags [none] length: 588 10.1.1.1 > 10.2.1.1) ns3::TcpHeader (49153 > 5000 [ACK] Seq=1609 Ack=1 Win=32768 ns3::TcpOptionTS(61;30) ns3::TcpOptionEnd(EOL)) Payload Fragment [1608:2000] Payload Fragment [0:144]
- 0.0676747 /NodeList/2/DeviceList/0/$ns3::PointToPointNetDevice/TxQueue/Dequeue ns3::PppHeader (Point-to-Point Protocol: IP (0x0021)) ns3::Ipv4Header (tos 0x0 DSCP Default ECN Not-ECT ttl 64 id 6 protocol 6 offset (bytes) 0 flags [none] length: 588 10.1.1.1 > 10.2.1.1) ns3::TcpHeader (49153 > 5000 [ACK] Seq=2145 Ack=1 Win=32768 ns3::TcpOptionTS(61;30) ns3::TcpOptionEnd(EOL)) Payload Fragment [144:680]
- 0.069248 /NodeList/2/DeviceList/0/$ns3::PointToPointNetDevice/TxQueue/Dequeue ns3::PppHeader (Point-to-Point Protocol: IP (0x0021)) ns3::Ipv4Header (tos 0x0 DSCP Default ECN Not-ECT ttl 64 id 7 protocol 6 offset (bytes) 0 flags [none] length: 588 10.1.1.1 > 10.2.1.1) ns3::TcpHeader (49153 > 5000 [ACK] Seq=2681 Ack=1 Win=32768 ns3::TcpOptionTS(61;30) ns3::TcpOptionEnd(EOL)) Payload Fragment [680:1216]
- 0.0708213 /NodeList/2/DeviceList/0/$ns3::PointToPointNetDevice/TxQueue/Dequeue ns3::PppHeader (Point-to-Point Protocol: IP (0x0021)) ns3::Ipv4Header (tos 0x0 DSCP Default ECN Not-ECT ttl 64 id 8 protocol 6 offset (bytes) 0 flags [none] length: 588 10.1.1.1 > 10.2.1.1) ns3::TcpHeader (49153 > 5000 [ACK] Seq=3217 Ack=1 Win=32768 ns3::TcpOptionTS(61;30) ns3::TcpOptionEnd(EOL)) Payload Fragment [1216:1752]
r 0.0713813 /NodeList/0/DeviceList/1/$ns3::PointToPointNetDevice/MacRx ns3::PppHeader (Point-to-Point Protocol: IP (0x0021)) ns3::Ipv4Header (tos 0x0 DSCP Default ECN Not-ECT ttl 64 id 1 protocol 6 offset (bytes) 0 flags [none] length: 52 10.1.1.1 > 10.2.1.1) ns3::TcpHeader (49153 > 5000 [ACK] Seq=1 Ack=1 Win=32768 ns3::TcpOptionTS(61;30) ns3::TcpOptionEnd(EOL))
+ 0.0713813 /NodeList/0/DeviceList/0/$ns3::PointToPointNetDevice/TxQueue/Enqueue ns3::PppHeader (Point-to-Point Protocol: IP (0x0021)) ns3::Ipv4Header (tos 0x0 DSCP Default ECN Not-ECT ttl 63 id 1 protocol 6 offset (bytes) 0 flags [none] length: 52 10.1.1.1 > 10.2.1.1) ns3::TcpHeader (49153 > 5000 [ACK] Seq=1 Ack=1 Win=32768 ns3::TcpOptionTS(61;30) ns3::TcpOptionEnd(EOL))
- 0.0713813 /NodeList/0/DeviceList/0/$ns3::PointToPointNetDevice/TxQueue/Dequeue ns3::PppHeader (Point-to-Point Protocol: IP (0x0021)) ns3::Ipv4Header (tos 0x0 DSCP Default ECN Not-ECT ttl 63 id 1 protocol 6 offset (bytes) 0 flags [none] length: 52 10.1.1.1 > 10.2.1.1) ns3::TcpHeader (49153 > 5000 [ACK] Seq=1 Ack=1 Win=32768 ns3::TcpOptionTS(61;30) ns3::TcpOptionEnd(EOL))
- 0.0723947 /NodeList/2/DeviceList/0/$ns3::PointToPointNetDevice/TxQueue/Dequeue ns3::PppHeader (Point-to-Point Protocol: IP (0x0021)) ns3::Ipv4Header (tos 0x0 DSCP Default ECN Not-ECT ttl 64 id 9 protocol 6 offset (bytes) 0 flags [none] length: 588 10.1.1.1 > 10.2.1.1) ns3::TcpHeader (49153 > 5000 [ACK] Seq=3753 Ack=1 Win=32768 ns3::TcpOptionTS(61;30) ns3::TcpOptionEnd(EOL)) Payload Fragment [1752:2000] Payload Fragment [0:288]
r 0.0729547 /NodeList/0/DeviceList/1/$ns3::PointToPointNetDevice/MacRx ns3::PppHeader (Point-to-Point Protocol: IP (0x0021)) ns3::Ipv4Header (tos 0x0 DSCP Default ECN Not-ECT ttl 64 id 2 protocol 6 offset (bytes) 0 flags [none] length: 588 10.1.1.1 > 10.2.1.1) ns3::TcpHeader (49153 > 5000 [ACK] Seq=1 Ack=1 Win=32768 ns3::TcpOptionTS(61;30) ns3::TcpOptionEnd(EOL)) Payload Fragment [0:536]
+ 0.0729547 /NodeList/0/DeviceList/0/$ns3::PointToPointNetDevice/TxQueue/Enqueue ns3::PppHeader (Point-to-Point Protocol: IP (0x0021)) ns3::Ipv4Header (tos 0x0 DSCP Default ECN Not-ECT ttl 63 id 2 protocol 6 offset (bytes) 0 flags [none] length: 588 10.1.1.1 > 10.2.1.1) ns3::TcpHeader (49153 > 5000 [ACK] Seq=1 Ack=1 Win=32768 ns3::TcpOptionTS(61;30) ns3::TcpOptionEnd(EOL)) Payload Fragment [0:536]
- 0.0729547 /NodeList/0/DeviceList/0/$ns3::PointToPointNetDevice/TxQueue/Dequeue ns3::PppHeader (Point-to-Point Protocol: IP (0x0021)) ns3::Ipv4Header (tos 0x0 DSCP Default ECN Not-ECT ttl 63 id 2 protocol 6 offset (bytes) 0 flags [none] length: 588 10.1.1.1 > 10.2.1.1) ns3::TcpHeader (49153 > 5000 [ACK] Seq=1 Ack=1 Win=32768 ns3::TcpOptionTS(61;30) ns3::TcpOptionEnd(EOL)) Payload Fragment [0:536]
- 0.073968 /NodeList/2/DeviceList/0/$ns3::PointToPointNetDevice/TxQueue/Dequeue ns3::PppHeader (Point-to-Point Protocol: IP (0x0021)) ns3::Ipv4Header (tos 0x0 DSCP Default ECN Not-ECT ttl 64 id 10 protocol 6 offset (bytes) 0 flags [none] length: 588 10.1.1.1 > 10.2.1.1) ns3::TcpHeader (49153 > 5000 [ACK] Seq=4289 Ack=1 Win=32768 ns3::TcpOptionTS(61;30) ns3::TcpOptionEnd(EOL)) Payload Fragment [288:824]
r 0.074528 /NodeList/0/DeviceList/1/$ns3::PointToPointNetDevice/MacRx ns3::PppHeader (Point-to-Point Protocol: IP (0x0021)) ns3::Ipv4Header (tos 0x0 DSCP Default ECN Not-ECT ttl 64 id 3 protocol 6 offset (bytes) 0 flags [none] length: 588 10.1.1.1 > 10.2.1.1) ns3::TcpHeader (49153 > 5000 [ACK] Seq=537 Ack=1 Win=32768 ns3::TcpOptionTS(61;30) ns3::TcpOptionEnd(EOL)) Payload Fragment [536:1072]
+ 0.074528 /NodeList/0/DeviceList/0/$ns3::PointToPointNetDevice/TxQueue/Enqueue ns3::PppHeader (Point-to-Point Protocol: IP (0x0021)) ns3::Ipv4Header (tos 0x0 DSCP Default ECN Not-ECT ttl 63 id 3 protocol 6 offset (bytes) 0 flags [none] length: 588 10.1.1.1 > 10.2.1.1) ns3::TcpHeader (49153 > 5000 [ACK] Seq=537 Ack=1 Win=32768 ns3::TcpOptionTS(61;30) ns3::TcpOptionEnd(EOL)) Payload Fragment [536:1072]
- 0.0755413 /NodeList/2/DeviceList/0/$ns3::PointToPointNetDevice/TxQueue/Dequeue ns3::PppHeader (Point-to-Point Protocol: IP (0x0021)) ns3::Ipv4Header (tos 0x0 DSCP Default ECN Not-ECT ttl 64 id 11 protocol 6 offset (bytes) 0 flags [none] length: 588 10.1.1.1 > 10.2.1.1) ns3::TcpHeader (49153 > 5000 [ACK] Seq=4825 Ack=1 Win=32768 ns3::TcpOptionTS(61;30) ns3::TcpOptionEnd(EOL)) Payload Fragment [824:1360]
r 0.0761013 /NodeList/0/DeviceList/1/$ns3::PointToPointNetDevice/MacRx ns3::PppHeader (Point-to-Point Protocol: IP (0x0021)) ns3::Ipv4Header (tos 0x0 DSCP Default ECN Not-ECT ttl 64 id 4 protocol 6 offset (bytes) 0 flags [none] length: 588 10.1.1.1 > 10.2.1.1) ns3::TcpHeader (49153 > 5000 [ACK] Seq=1073 Ack=1 Win=32768 ns3::TcpOptionTS(61;30) ns3::TcpOptionEnd(EOL)) Payload Fragment [1072:1608]
+ 0.0761013 /NodeList/0/DeviceList/0/$ns3::PointToPointNetDevice/TxQueue/Enqueue ns3::PppHeader (Point-to-Point Protocol: IP (0x0021)) ns3::Ipv4Header (tos 0x0 DSCP Default ECN Not-ECT ttl 63 id 4 protocol 6 offset (bytes) 0 flags [none] length: 588 10.1.1.1 > 10.2.1.1) ns3::TcpHeader (49153 > 5000 [ACK] Seq=1073 Ack=1 Win=32768 ns3::TcpOptionTS(61;30) ns3::TcpOptionEnd(EOL)) Payload Fragment [1072:1608]
- 0.0761013 /NodeList/0/DeviceList/0/$ns3::PointToPointNetDevice/TxQueue/Dequeue ns3::PppHeader (Point-to-Point Protocol: IP (0x0021)) ns3::Ipv4Header (tos 0x0 DSCP Default ECN Not-ECT ttl 63 id 3 protocol 6 offset (bytes) 0 flags [none] length: 588 10.1.1.1 > 10.2.1.1) ns3::TcpHeader (49153 > 5000 [ACK] Seq=537 Ack=1 Win=32768 ns3::TcpOptionTS(61;30) ns3::TcpOptionEnd(EOL)) Payload Fragment [536:1072]
r 0.0776747 /NodeList/0/DeviceList/1/$ns3::PointToPointNetDevice/MacRx ns3::PppHeader (Point-to-Point Protocol: IP (0x0021)) ns3::Ipv4Header (tos 0x0 DSCP Default ECN Not-ECT ttl 64 id 5 protocol 6 offset (bytes) 0 flags [none] length: 588 10.1.1.1 > 10.2.1.1) ns3::TcpHeader (49153 > 5000 [ACK] Seq=1609 Ack=1 Win=32768 ns3::TcpOptionTS(61;30) ns3::TcpOptionEnd(EOL)) Payload Fragment [1608:2000] Payload Fragment [0:144]
+ 0.0776747 /NodeList/0/DeviceList/0/$ns3::PointToPointNetDevice/TxQueue/Enqueue ns3::PppHeader (Point-to-Point Protocol: IP (0x0021)) ns3::Ipv4Header (tos 0x0 DSCP Default ECN Not-ECT ttl 63 id 5 protocol 6 offset (bytes) 0 flags [none] length: 588 10.1.1.1 > 10.2.1.1) ns3::TcpHeader (49153 > 5000 [ACK] Seq=1609 Ack=1 Win=32768 ns3::TcpOptionTS(61;30) ns3::TcpOptionEnd(EOL)) Payload Fragment [1608:2000] Payload Fragment [0:144]
r 0.079248 /NodeList/0/DeviceList/1/$ns3::PointToPointNetDevice/MacRx ns3::PppHeader (Point-to-Point Protocol: IP (0x0021)) ns3::Ipv4Header (tos 0x0 DSCP Default ECN Not-ECT ttl 64 id 6 protocol 6 offset (bytes) 0 flags [none] length: 588 10.1.1.1 > 10.2.1.1) ns3::TcpHeader (49153 > 5000 [ACK] Seq=2145 Ack=1 Win=32768 ns3::TcpOptionTS(61;30) ns3::TcpOptionEnd(EOL)) Payload Fragment [144:680]
+ 0.079248 /NodeList/0/DeviceList/0/$ns3::PointToPointNetDevice/TxQueue/Enqueue ns3::PppHeader (Point-to-Point Protocol: IP (0x0021)) ns3::Ipv4Header (tos 0x0 DSCP Default ECN Not-ECT ttl 63 id 6 protocol 6 offset (bytes) 0 flags [none] length: 588 10.1.1.1 > 10.2.1.1) ns3::TcpHeader (49153 > 5000 [ACK] Seq=2145 Ack=1 Win=32768 ns3::TcpOptionTS(61;30) ns3::TcpOptionEnd(EOL)) Payload Fragment [144:680]
- 0.079248 /NodeList/0/DeviceList/0/$ns3::PointToPointNetDevice/TxQueue/Dequeue ns3::PppHeader (Point-to-Point Protocol: IP (0x0021)) ns3::Ipv4Header (tos 0x0 DSCP Default ECN Not-ECT ttl 63 id 4 protocol 6 offset (bytes) 0 flags [none] length: 588 10.1.1.1 > 10.2.1.1) ns3::TcpHeader (49153 > 5000 [ACK] Seq=1073 Ack=1 Win=32768 ns3::TcpOptionTS(61;30) ns3::TcpOptionEnd(EOL)) Payload Fragment [1072:1608]
r 0.0808213 /NodeList/0/DeviceList/1/$ns3::PointToPointNetDevice/MacRx ns3::PppHeader (Point-to-Point Protocol: IP (0x0021)) ns3::Ipv4Header (tos 0x0 DSCP Default ECN Not-ECT ttl 64 id 7 protocol 6 offset (bytes) 0 flags [none] length: 588 10.1.1.1 > 10.2.1.1) ns3::TcpHeader (49153 > 5000 [ACK] Seq=2681 Ack=1 Win=32768 ns3::TcpOptionTS(61;30) ns3::TcpOptionEnd(EOL)) Payload Fragment [680:1216]
+ 0.0808213 /NodeList/0/DeviceList/0/$ns3::PointToPointNetDevice/TxQueue/Enqueue ns3::PppHeader (Point-to-Point Protocol: IP (0x0021)) ns3::Ipv4Header (tos 0x0 DSCP Default ECN Not-ECT ttl 63 id 7 protocol 6 offset (bytes) 0 flags [none] length: 588 10.1.1.1 > 10.2.1.1) ns3::TcpHeader (49153 > 5000 [ACK] Seq=2681 Ack=1 Win=32768 ns3::TcpOptionTS(61;30) ns3::TcpOptionEnd(EOL)) Payload Fragment [680:1216]
r 0.0816693 /NodeList/1/DeviceList/0/$ns3::PointToPointNetDevice/MacRx ns3::PppHeader (Point-to-Point Protocol: IP (0x0021)) ns3::Ipv4Header (tos 0x0 DSCP Default ECN Not-ECT ttl 63 id 1 protocol 6 offset (bytes) 0 flags [none] length: 52 10.1.1.1 > 10.2.1.1) ns3::TcpHeader (49153 > 5000 [ACK] Seq=1 Ack=1 Win=32768 ns3::TcpOptionTS(61;30) ns3::TcpOptionEnd(EOL))
+ 0.0816693 /NodeList/1/DeviceList/1/$ns3::PointToPointNetDevice/TxQueue/Enqueue ns3::PppHeader (Point-to-Point Protocol: IP (0x0021)) ns3::Ipv4Header (tos 0x0 DSCP Default ECN Not-ECT ttl 62 id 1 protocol 6 offset (bytes) 0 flags [none] length: 52 10.1.1.1 > 10.2.1.1) ns3::TcpHeader (49153 > 5000 [ACK] Seq=1 Ack=1 Win=32768 ns3::TcpOptionTS(61;30) ns3::TcpOptionEnd(EOL))
- 0.0816693 /NodeList/1/DeviceList/1/$ns3::PointToPointNetDevice/TxQueue/Dequeue ns3::PppHeader (Point-to-Point Protocol: IP (0x0021)) ns3::Ipv4Header (tos 0x0 DSCP Default ECN Not-ECT ttl 62 id 1 protocol 6 offset (bytes) 0 flags [none] length: 52 10.1.1.1 > 10.2.1.1) ns3::TcpHeader (49153 > 5000 [ACK] Seq=1 Ack=1 Win=32768 ns3::TcpOptionTS(61;30) ns3::TcpOptionEnd(EOL))
r 0.0823947 /NodeList/0/DeviceList/1/$ns3::PointToPointNetDevice/MacRx ns3::PppHeader (Point-to-Point Protocol: IP (0x0021)) ns3::Ipv4Header (tos 0x0 DSCP Default ECN Not-ECT ttl 64 id 8 protocol 6 offset (bytes) 0 flags [none] length: 588 10.1.1.1 > 10.2.1.1) ns3::TcpHeader (49153 > 5000 [ACK] Seq=3217 Ack=1 Win=32768 ns3::TcpOptionTS(61;30) ns3::TcpOptionEnd(EOL)) Payload Fragment [1216:1752]
+ 0.0823947 /NodeList/0/DeviceList/0/$ns3::PointToPointNetDevice/TxQueue/Enqueue ns3::PppHeader (Point-to-Point Protocol: IP (0x0021)) ns3::Ipv4Header (tos 0x0 DSCP Default ECN Not-ECT ttl 63 id 8 protocol 6 offset (bytes) 0 flags [none] length: 588 10.1.1.1 > 10.2.1.1) ns3::TcpHeader (49153 > 5000 [ACK] Seq=3217 Ack=1 Win=32768 ns3::TcpOptionTS(61;30) ns3::TcpOptionEnd(EOL)) Payload Fragment [1216:1752]
- 0.0823947 /NodeList/0/DeviceList/0/$ns3::PointToPointNetDevice/TxQueue/Dequeue ns3::PppHeader (Point-to-Point Protocol: IP (0x0021)) ns3::Ipv4Header (tos 0x0 DSCP Default ECN Not-ECT ttl 63 id 5 protocol 6 offset (bytes) 0 flags [none] length: 588 10.1.1.1 > 10.2.1.1) ns3::TcpHeader (49153 > 5000 [ACK] Seq=1609 Ack=1 Win=32768 ns3::TcpOptionTS(61;30) ns3::TcpOptionEnd(EOL)) Payload Fragment [1608:2000] Payload Fragment [0:144]
r 0.083968 /NodeList/0/DeviceList/1/$ns3::PointToPointNetDevice/MacRx ns3::PppHeader (Point-to-Point Protocol: IP (0x0021)) ns3::Ipv4Header (tos 0x0 DSCP Default ECN Not-ECT ttl 64 id 9 protocol 6 offset (bytes) 0 flags [none] length: 588 10.1.1.1 > 10.2.1.1) ns3::TcpHeader (49153 > 5000 [ACK] Seq=3753 Ack=1 Win=32768 ns3::TcpOptionTS(61;30) ns3::TcpOptionEnd(EOL)) Payload Fragment [1752:2000] Payload Fragment [0:288]
+ 0.083968 /NodeList/0/DeviceList/0/$ns3::PointToPointNetDevice/TxQueue/Enqueue ns3::PppHeader (Point-to-Point Protocol: IP (0x0021)) ns3::Ipv4Header (tos 0x0 DSCP Default ECN Not-ECT ttl 63 id 9 protocol 6 offset (bytes) 0 flags [none] length: 588 10.1.1.1 > 10.2.1.1) ns3::TcpHeader (49153 > 5000 [ACK] Seq=3753 Ack=1 Win=32768 ns3::TcpOptionTS(61;30) ns3::TcpOptionEnd(EOL)) Payload Fragment [1752:2000] Payload Fragment [0:288]
r 0.0855413 /NodeList/0/DeviceList/1/$ns3::PointToPointNetDevice/MacRx ns3::PppHeader (Point-to-Point Protocol: IP (0x0021)) ns3::Ipv4Header (tos 0x0 DSCP Default ECN Not-ECT ttl 64 id 10 protocol 6 offset (bytes) 0 flags [none] length: 588 10.1.1.1 > 10.2.1.1) ns3::TcpHeader (49153 > 5000 [ACK] Seq=4289 Ack=1 Win=32768 ns3::TcpOptionTS(61;30) ns3::TcpOptionEnd(EOL)) Payload Fragment [288:824]
+ 0.0855413 /NodeList/0/DeviceList/0/$ns3::PointToPointNetDevice/TxQueue/Enqueue ns3::PppHeader (Point-to-Point Protocol: IP (0x0021)) ns3::Ipv4Header (tos 0x0 DSCP Default ECN Not-ECT ttl 63 id 10 protocol 6 offset (bytes) 0 flags [none] length: 588 10.1.1.1 > 10.2.1.1) ns3::TcpHeader (49153 > 5000 [ACK] Seq=4289 Ack=1 Win=32768 ns3::TcpOptionTS(61;30) ns3::TcpOptionEnd(EOL)) Payload Fragment [288:824]
- 0.0855413 /NodeList/0/DeviceList/0/$ns3::PointToPointNetDevice/TxQueue/Dequeue ns3::PppHeader (Point-to-Point Protocol: IP (0x0021)) ns3::Ipv4Header (tos 0x0 DSCP Default ECN Not-ECT ttl 63 id 6 protocol 6 offset (bytes) 0 flags [none] length: 588 10.1.1.1 > 10.2.1.1) ns3::TcpHeader (49153 > 5000 [ACK] Seq=2145 Ack=1 Win=32768 ns3::TcpOptionTS(61;30) ns3::TcpOptionEnd(EOL)) Payload Fragment [144:680]
r 0.0861013 /NodeList/1/DeviceList/0/$ns3::PointToPointNetDevice/MacRx ns3::PppHeader (Point-to-Point Protocol: IP (0x0021)) ns3::Ipv4Header (tos 0x0 DSCP Default ECN Not-ECT ttl 63 id 2 protocol 6 offset (bytes) 0 flags [none] length: 588 10.1.1.1 > 10.2.1.1) ns3::TcpHeader (49153 > 5000 [ACK] Seq=1 Ack=1 Win=32768 ns3::TcpOptionTS(61;30) ns3::TcpOptionEnd(EOL)) Payload Fragment [0:536]
+ 0.0861013 /NodeList/1/DeviceList/1/$ns3::PointToPointNetDevice/TxQueue/Enqueue ns3::PppHeader (Point-to-Point Protocol: IP (0x0021)) ns3::Ipv4Header (tos 0x0 DSCP Default ECN Not-ECT ttl 62 id 2 protocol 6 offset (bytes) 0 flags [none] length: 588 10.1.1.1 > 10.2.1.1) ns3::TcpHeader (49153 > 5000 [ACK] Seq=1 Ack=1 Win=32768 ns3::TcpOptionTS(61;30) ns3::TcpOptionEnd(EOL)) Payload Fragment [0:536]
- 0.0861013 /NodeList/1/DeviceList/1/$ns3::PointToPointNetDevice/TxQueue/Dequeue ns3::PppHeader (Point-to-Point Protocol: IP (0x0021)) ns3::Ipv4Header (tos 0x0 DSCP Default ECN Not-ECT ttl 62 id 2 protocol 6 offset (bytes) 0 flags [none] length: 588 10.1.1.1 > 10.2.1.1) ns3::TcpHeader (49153 > 5000 [ACK] Seq=1 Ack=1 Win=32768 ns3::TcpOptionTS(61;30) ns3::TcpOptionEnd(EOL)) Payload Fragment [0:536]